Program Version,EnergyPlus, Version 8.3.0-6d97d074ea, YMD=2015.09.15 10:16
1,5,Environment Title[],Latitude[deg],Longitude[deg],Time Zone[],Elevation[m]
2,6,Day of Simulation[],Month[],Day of Month[],DST Indicator[1=yes 0=no],Hour[],StartMinute[],EndMinute[],DayType
3,3,Cumulative Day of Simulation[],Month[],Day of Month[],DST Indicator[1=yes 0=no],DayType  ! When Daily Meters Requested
4,2,Cumulative Days of Simulation[],Month[]  ! When Monthly Meters Requested
5,1,Cumulative Days of Simulation[] ! When Run Period Meters Requested
9,1,Electricity:Facility [J] !TimeStep
411,1,Gas:Facility [J] !TimeStep
End of Data Dictionary
1,CHICAGO OHARE INTL AP ANN CLG .4% CONDNS DB=>MWB,  41.98, -87.92,  -6.00, 201.00
2,1, 7,21, 0, 1, 0.00,15.00,SummerDesignDay
9,10408578.1559719
411,0.0
2,1, 7,21, 0, 1,15.00,30.00,SummerDesignDay
9,10397368.8240539
411,0.0
2,1, 7,21, 0, 1,30.00,45.00,SummerDesignDay
9,10380168.6006272
411,0.0
2,1, 7,21, 0, 1,45.00,60.00,SummerDesignDay
9,10358482.9995049
411,0.0
2,1, 7,21, 0, 2, 0.00,15.00,SummerDesignDay
9,10341858.2099038
411,0.0
2,1, 7,21, 0, 2,15.00,30.00,SummerDesignDay
9,10322258.6575277
411,0.0
2,1, 7,21, 0, 2,30.00,45.00,SummerDesignDay
9,10300363.8832445
411,0.0
2,1, 7,21, 0, 2,45.00,60.00,SummerDesignDay
9,10276622.0666697
411,0.0
2,1, 7,21, 0, 3, 0.00,15.00,SummerDesignDay
9,10255817.2615269
411,0.0
2,1, 7,21, 0, 3,15.00,30.00,SummerDesignDay
9,10233863.5003086
411,0.0
2,1, 7,21, 0, 3,30.00,45.00,SummerDesignDay
9,10210910.7535487
411,0.0
2,1, 7,21, 0, 3,45.00,60.00,SummerDesignDay
9,10139675.3006698
411,0.0
2,1, 7,21, 0, 4, 0.00,15.00,SummerDesignDay
9,10197318.2666084
411,0.0
2,1, 7,21, 0, 4,15.00,30.00,SummerDesignDay
9,10139675.3006698
411,0.0
2,1, 7,21, 0, 4,30.00,45.00,SummerDesignDay
9,10139675.3006698
411,0.0
2,1, 7,21, 0, 4,45.00,60.00,SummerDesignDay
9,10139675.3006698
411,0.0
2,1, 7,21, 0, 5, 0.00,15.00,SummerDesignDay
9,10139675.3006698
411,0.0
2,1, 7,21, 0, 5,15.00,30.00,SummerDesignDay
9,10139675.3006698
411,0.0
2,1, 7,21, 0, 5,30.00,45.00,SummerDesignDay
9,10139675.3006698
411,0.0
2,1, 7,21, 0, 5,45.00,60.00,SummerDesignDay
9,10139675.3006698
411,0.0
2,1, 7,21, 0, 6, 0.00,15.00,SummerDesignDay
9,10139675.3006698
411,0.0
2,1, 7,21, 0, 6,15.00,30.00,SummerDesignDay
9,10139675.3006698
411,0.0
2,1, 7,21, 0, 6,30.00,45.00,SummerDesignDay
9,10277709.3448579
411,0.0
2,1, 7,21, 0, 6,45.00,60.00,SummerDesignDay
9,10307429.7044604
411,0.0
2,1, 7,21, 0, 7, 0.00,15.00,SummerDesignDay
9,19835056.7762374
411,0.0
2,1, 7,21, 0, 7,15.00,30.00,SummerDesignDay
9,17924625.8606857
411,0.0
2,1, 7,21, 0, 7,30.00,45.00,SummerDesignDay
9,17179547.8536575
411,0.0
2,1, 7,21, 0, 7,45.00,60.00,SummerDesignDay
9,16960315.6459249
411,0.0
2,1, 7,21, 0, 8, 0.00,15.00,SummerDesignDay
9,16405255.2463901
411,0.0
2,1, 7,21, 0, 8,15.00,30.00,SummerDesignDay
9,16336951.4644728
411,0.0
2,1, 7,21, 0, 8,30.00,45.00,SummerDesignDay
9,16299042.622748
411,0.0
2,1, 7,21, 0, 8,45.00,60.00,SummerDesignDay
9,16302956.1048811
411,0.0
2,1, 7,21, 0, 9, 0.00,15.00,SummerDesignDay
9,16356923.6577744
411,0.0
2,1, 7,21, 0, 9,15.00,30.00,SummerDesignDay
9,16438671.7406892
411,0.0
2,1, 7,21, 0, 9,30.00,45.00,SummerDesignDay
9,16539498.4483863
411,0.0
2,1, 7,21, 0, 9,45.00,60.00,SummerDesignDay
9,16658147.80491
411,0.0
2,1, 7,21, 0,10, 0.00,15.00,SummerDesignDay
9,16772123.2280568
411,0.0
2,1, 7,21, 0,10,15.00,30.00,SummerDesignDay
9,16891632.8629098
411,0.0
2,1, 7,21, 0,10,30.00,45.00,SummerDesignDay
9,17014340.4778577
411,0.0
2,1, 7,21, 0,10,45.00,60.00,SummerDesignDay
9,17137582.6493598
411,0.0
2,1, 7,21, 0,11, 0.00,15.00,SummerDesignDay
9,17245720.9662913
411,0.0
2,1, 7,21, 0,11,15.00,30.00,SummerDesignDay
9,17350769.9652442
411,0.0
2,1, 7,21, 0,11,30.00,45.00,SummerDesignDay
9,17451974.4322138
411,0.0
2,1, 7,21, 0,11,45.00,60.00,SummerDesignDay
9,17549502.6315268
411,0.0
2,1, 7,21, 0,12, 0.00,15.00,SummerDesignDay
9,17606313.2270115
411,0.0
2,1, 7,21, 0,12,15.00,30.00,SummerDesignDay
9,17662185.0921092
411,0.0
2,1, 7,21, 0,12,30.00,45.00,SummerDesignDay
9,17722013.5144356
411,0.0
2,1, 7,21, 0,12,45.00,60.00,SummerDesignDay
9,17792842.7023916
411,0.0
2,1, 7,21, 0,13, 0.00,15.00,SummerDesignDay
9,17870504.8077074
411,0.0
2,1, 7,21, 0,13,15.00,30.00,SummerDesignDay
9,17964462.466445
411,0.0
2,1, 7,21, 0,13,30.00,45.00,SummerDesignDay
9,18068868.7641697
411,0.0
2,1, 7,21, 0,13,45.00,60.00,SummerDesignDay
9,18178784.672066
411,0.0
2,1, 7,21, 0,14, 0.00,15.00,SummerDesignDay
9,18265644.3626844
411,0.0
2,1, 7,21, 0,14,15.00,30.00,SummerDesignDay
9,18350031.1698249
411,0.0
2,1, 7,21, 0,14,30.00,45.00,SummerDesignDay
9,18429619.8364113
411,0.0
2,1, 7,21, 0,14,45.00,60.00,SummerDesignDay
9,18502755.3717331
411,0.0
2,1, 7,21, 0,15, 0.00,15.00,SummerDesignDay
9,18527355.1773323
411,0.0
2,1, 7,21, 0,15,15.00,30.00,SummerDesignDay
9,18542131.211594
411,0.0
2,1, 7,21, 0,15,30.00,45.00,SummerDesignDay
9,18548559.2033855
411,0.0
2,1, 7,21, 0,15,45.00,60.00,SummerDesignDay
9,18557038.1468715
411,0.0
2,1, 7,21, 0,16, 0.00,15.00,SummerDesignDay
9,18503771.6241625
411,0.0
2,1, 7,21, 0,16,15.00,30.00,SummerDesignDay
9,18444197.8642709
411,0.0
2,1, 7,21, 0,16,30.00,45.00,SummerDesignDay
9,18378811.9979189
411,0.0
2,1, 7,21, 0,16,45.00,60.00,SummerDesignDay
9,18308768.3303846
411,0.0
2,1, 7,21, 0,17, 0.00,15.00,SummerDesignDay
9,18220537.2935748
411,0.0
2,1, 7,21, 0,17,15.00,30.00,SummerDesignDay
9,18135509.4145169
411,0.0
2,1, 7,21, 0,17,30.00,45.00,SummerDesignDay
9,18054422.7749728
411,0.0
2,1, 7,21, 0,17,45.00,60.00,SummerDesignDay
9,17972064.4380531
411,0.0
2,1, 7,21, 0,18, 0.00,15.00,SummerDesignDay
9,17869777.51243
411,0.0
2,1, 7,21, 0,18,15.00,30.00,SummerDesignDay
9,17757975.1458184
411,0.0
2,1, 7,21, 0,18,30.00,45.00,SummerDesignDay
9,17623908.8804946
411,0.0
2,1, 7,21, 0,18,45.00,60.00,SummerDesignDay
9,17494653.2169891
411,0.0
2,1, 7,21, 0,19, 0.00,15.00,SummerDesignDay
9,17302838.2885684
411,0.0
2,1, 7,21, 0,19,15.00,30.00,SummerDesignDay
9,17088920.9454588
411,0.0
2,1, 7,21, 0,19,30.00,45.00,SummerDesignDay
9,16835696.0387361
411,0.0
2,1, 7,21, 0,19,45.00,60.00,SummerDesignDay
9,16552828.9640262
411,0.0
2,1, 7,21, 0,20, 0.00,15.00,SummerDesignDay
9,16293775.4867786
411,0.0
2,1, 7,21, 0,20,15.00,30.00,SummerDesignDay
9,16090147.9306341
411,0.0
2,1, 7,21, 0,20,30.00,45.00,SummerDesignDay
9,15939268.5902277
411,0.0
2,1, 7,21, 0,20,45.00,60.00,SummerDesignDay
9,15810470.3383754
411,0.0
2,1, 7,21, 0,21, 0.00,15.00,SummerDesignDay
9,15710230.8733996
411,0.0
2,1, 7,21, 0,21,15.00,30.00,SummerDesignDay
9,15614512.7698399
411,0.0
2,1, 7,21, 0,21,30.00,45.00,SummerDesignDay
9,15523282.1154072
411,0.0
2,1, 7,21, 0,21,45.00,60.00,SummerDesignDay
9,15432904.22383
411,0.0
2,1, 7,21, 0,22, 0.00,15.00,SummerDesignDay
9,15344855.2236527
411,0.0
2,1, 7,21, 0,22,15.00,30.00,SummerDesignDay
9,15258078.844404
411,0.0
2,1, 7,21, 0,22,30.00,45.00,SummerDesignDay
9,15172387.2896422
411,0.0
2,1, 7,21, 0,22,45.00,60.00,SummerDesignDay
9,15088617.1247533
411,0.0
2,1, 7,21, 0,23, 0.00,15.00,SummerDesignDay
9,10437125.7808625
411,0.0
2,1, 7,21, 0,23,15.00,30.00,SummerDesignDay
9,10340625.8501319
411,354073.879003742
2,1, 7,21, 0,23,30.00,45.00,SummerDesignDay
9,10139675.3006698
411,161131.575393877
2,1, 7,21, 0,23,45.00,60.00,SummerDesignDay
9,10249824.9951995
411,0.0
2,1, 7,21, 0,24, 0.00,15.00,SummerDesignDay
9,10272978.9816103
411,0.0
2,1, 7,21, 0,24,15.00,30.00,SummerDesignDay
9,10456084.6715532
411,0.0
2,1, 7,21, 0,24,30.00,45.00,SummerDesignDay
9,10408237.2372985
411,0.0
2,1, 7,21, 0,24,45.00,60.00,SummerDesignDay
9,10422860.9395892
411,0.0
1,CHICAGO OHARE INTL AP ANN CLG .4% CONDNS DP=>MDB,  41.98, -87.92,  -6.00, 201.00
2,1, 7,21, 0, 1, 0.00,15.00,SummerDesignDay
9,10139675.3006698
411,0.0
2,1, 7,21, 0, 1,15.00,30.00,SummerDesignDay
9,10139675.3006698
411,0.0
2,1, 7,21, 0, 1,30.00,45.00,SummerDesignDay
9,10139675.3006698
411,0.0
2,1, 7,21, 0, 1,45.00,60.00,SummerDesignDay
9,10139675.3006698
411,0.0
2,1, 7,21, 0, 2, 0.00,15.00,SummerDesignDay
9,10139675.3006698
411,0.0
2,1, 7,21, 0, 2,15.00,30.00,SummerDesignDay
9,10139675.3006698
411,0.0
2,1, 7,21, 0, 2,30.00,45.00,SummerDesignDay
9,10139675.3006698
411,0.0
2,1, 7,21, 0, 2,45.00,60.00,SummerDesignDay
9,10139675.3006698
411,0.0
2,1, 7,21, 0, 3, 0.00,15.00,SummerDesignDay
9,10139675.3006698
411,0.0
2,1, 7,21, 0, 3,15.00,30.00,SummerDesignDay
9,10139675.3006698
411,0.0
2,1, 7,21, 0, 3,30.00,45.00,SummerDesignDay
9,10139675.3006698
411,0.0
2,1, 7,21, 0, 3,45.00,60.00,SummerDesignDay
9,10139675.3006698
411,0.0
2,1, 7,21, 0, 4, 0.00,15.00,SummerDesignDay
9,10139675.3006698
411,0.0
2,1, 7,21, 0, 4,15.00,30.00,SummerDesignDay
9,10139675.3006698
411,0.0
2,1, 7,21, 0, 4,30.00,45.00,SummerDesignDay
9,10139675.3006698
411,0.0
2,1, 7,21, 0, 4,45.00,60.00,SummerDesignDay
9,10139675.3006698
411,0.0
2,1, 7,21, 0, 5, 0.00,15.00,SummerDesignDay
9,10139675.3006698
411,0.0
2,1, 7,21, 0, 5,15.00,30.00,SummerDesignDay
9,10139675.3006698
411,0.0
2,1, 7,21, 0, 5,30.00,45.00,SummerDesignDay
9,10139675.3006698
411,0.0
2,1, 7,21, 0, 5,45.00,60.00,SummerDesignDay
9,10139675.3006698
411,0.0
2,1, 7,21, 0, 6, 0.00,15.00,SummerDesignDay
9,10139675.3006698
411,0.0
2,1, 7,21, 0, 6,15.00,30.00,SummerDesignDay
9,10139675.3006698
411,0.0
2,1, 7,21, 0, 6,30.00,45.00,SummerDesignDay
9,10139675.3006698
411,0.0
2,1, 7,21, 0, 6,45.00,60.00,SummerDesignDay
9,10139675.3006698
411,0.0
2,1, 7,21, 0, 7, 0.00,15.00,SummerDesignDay
9,13921132.476529
411,192456.791996897
2,1, 7,21, 0, 7,15.00,30.00,SummerDesignDay
9,10945167.6942216
411,0.0
2,1, 7,21, 0, 7,30.00,45.00,SummerDesignDay
9,12427617.4930024
411,0.0
2,1, 7,21, 0, 7,45.00,60.00,SummerDesignDay
9,12077100.1131198
411,0.0
2,1, 7,21, 0, 8, 0.00,15.00,SummerDesignDay
9,12659223.7735664
411,0.0
2,1, 7,21, 0, 8,15.00,30.00,SummerDesignDay
9,13293542.8686545
411,0.0
2,1, 7,21, 0, 8,30.00,45.00,SummerDesignDay
9,13933338.8101826
411,0.0
2,1, 7,21, 0, 8,45.00,60.00,SummerDesignDay
9,14573324.766967
411,0.0
2,1, 7,21, 0, 9, 0.00,15.00,SummerDesignDay
9,15579569.1414117
411,0.0
2,1, 7,21, 0, 9,15.00,30.00,SummerDesignDay
9,15708885.2427667
411,0.0
2,1, 7,21, 0, 9,30.00,45.00,SummerDesignDay
9,15791487.577723
411,0.0
2,1, 7,21, 0, 9,45.00,60.00,SummerDesignDay
9,15916717.3434803
411,0.0
2,1, 7,21, 0,10, 0.00,15.00,SummerDesignDay
9,16049141.5296377
411,0.0
2,1, 7,21, 0,10,15.00,30.00,SummerDesignDay
9,16189165.0071622
411,0.0
2,1, 7,21, 0,10,30.00,45.00,SummerDesignDay
9,16320098.3999674
411,0.0
2,1, 7,21, 0,10,45.00,60.00,SummerDesignDay
9,16447173.910168
411,0.0
2,1, 7,21, 0,11, 0.00,15.00,SummerDesignDay
9,16553496.1751286
411,0.0
2,1, 7,21, 0,11,15.00,30.00,SummerDesignDay
9,16651411.4065733
411,0.0
2,1, 7,21, 0,11,30.00,45.00,SummerDesignDay
9,16740399.6215527
411,0.0
2,1, 7,21, 0,11,45.00,60.00,SummerDesignDay
9,16819140.1098297
411,0.0
2,1, 7,21, 0,12, 0.00,15.00,SummerDesignDay
9,16858956.2609418
411,0.0
2,1, 7,21, 0,12,15.00,30.00,SummerDesignDay
9,16902618.63304
411,0.0
2,1, 7,21, 0,12,30.00,45.00,SummerDesignDay
9,16952040.5978855
411,0.0
2,1, 7,21, 0,12,45.00,60.00,SummerDesignDay
9,17013312.4601714
411,0.0
2,1, 7,21, 0,13, 0.00,15.00,SummerDesignDay
9,17083333.5903038
411,0.0
2,1, 7,21, 0,13,15.00,30.00,SummerDesignDay
9,17170317.7356793
411,0.0
2,1, 7,21, 0,13,30.00,45.00,SummerDesignDay
9,17268330.5794932
411,0.0
2,1, 7,21, 0,13,45.00,60.00,SummerDesignDay
9,17372197.790374
411,0.0
2,1, 7,21, 0,14, 0.00,15.00,SummerDesignDay
9,17453836.1897607
411,0.0
2,1, 7,21, 0,14,15.00,30.00,SummerDesignDay
9,17533221.1251958
411,0.0
2,1, 7,21, 0,14,30.00,45.00,SummerDesignDay
9,17608095.2365354
411,0.0
2,1, 7,21, 0,14,45.00,60.00,SummerDesignDay
9,17676745.3173042
411,0.0
2,1, 7,21, 0,15, 0.00,15.00,SummerDesignDay
9,17698463.122779
411,0.0
2,1, 7,21, 0,15,15.00,30.00,SummerDesignDay
9,17711520.9902942
411,0.0
2,1, 7,21, 0,15,30.00,45.00,SummerDesignDay
9,17717007.7090602
411,0.0
2,1, 7,21, 0,15,45.00,60.00,SummerDesignDay
9,17715043.6324734
411,0.0
2,1, 7,21, 0,16, 0.00,15.00,SummerDesignDay
9,17654583.6241396
411,0.0
2,1, 7,21, 0,16,15.00,30.00,SummerDesignDay
9,17592875.8926614
411,0.0
2,1, 7,21, 0,16,30.00,45.00,SummerDesignDay
9,17530252.6587046
411,0.0
2,1, 7,21, 0,16,45.00,60.00,SummerDesignDay
9,17464831.264845
411,0.0
2,1, 7,21, 0,17, 0.00,15.00,SummerDesignDay
9,17383566.0754213
411,0.0
2,1, 7,21, 0,17,15.00,30.00,SummerDesignDay
9,17306965.2321168
411,0.0
2,1, 7,21, 0,17,30.00,45.00,SummerDesignDay
9,17233936.336906
411,0.0
2,1, 7,21, 0,17,45.00,60.00,SummerDesignDay
9,17160689.826272
411,0.0
2,1, 7,21, 0,18, 0.00,15.00,SummerDesignDay
9,17069124.5169529
411,0.0
2,1, 7,21, 0,18,15.00,30.00,SummerDesignDay
9,16973201.160966
411,0.0
2,1, 7,21, 0,18,30.00,45.00,SummerDesignDay
9,16855899.8851362
411,0.0
2,1, 7,21, 0,18,45.00,60.00,SummerDesignDay
9,16725184.6579111
411,0.0
2,1, 7,21, 0,19, 0.00,15.00,SummerDesignDay
9,16544481.6441278
411,0.0
2,1, 7,21, 0,19,15.00,30.00,SummerDesignDay
9,16340671.6432085
411,0.0
2,1, 7,21, 0,19,30.00,45.00,SummerDesignDay
9,16099157.8225416
411,0.0
2,1, 7,21, 0,19,45.00,60.00,SummerDesignDay
9,15819527.3475965
411,0.0
2,1, 7,21, 0,20, 0.00,15.00,SummerDesignDay
9,15557048.3263766
411,0.0
2,1, 7,21, 0,20,15.00,30.00,SummerDesignDay
9,15345093.6940297
411,0.0
2,1, 7,21, 0,20,30.00,45.00,SummerDesignDay
9,15188309.5789311
411,0.0
2,1, 7,21, 0,20,45.00,60.00,SummerDesignDay
9,15043200.7220193
411,0.0
2,1, 7,21, 0,21, 0.00,15.00,SummerDesignDay
9,14916437.2136842
411,0.0
2,1, 7,21, 0,21,15.00,30.00,SummerDesignDay
9,14795828.4003967
411,0.0
2,1, 7,21, 0,21,30.00,45.00,SummerDesignDay
9,14663926.0772135
411,0.0
2,1, 7,21, 0,21,45.00,60.00,SummerDesignDay
9,14536327.5067786
411,0.0
2,1, 7,21, 0,22, 0.00,15.00,SummerDesignDay
9,14408914.4695916
411,0.0
2,1, 7,21, 0,22,15.00,30.00,SummerDesignDay
9,14284486.5599487
411,0.0
2,1, 7,21, 0,22,30.00,45.00,SummerDesignDay
9,14160716.0188538
411,0.0
2,1, 7,21, 0,22,45.00,60.00,SummerDesignDay
9,14039953.3939018
411,0.0
2,1, 7,21, 0,23, 0.00,15.00,SummerDesignDay
9,10220200.2545577
411,0.0
2,1, 7,21, 0,23,15.00,30.00,SummerDesignDay
9,10252637.8012356
411,217924.894165841
2,1, 7,21, 0,23,30.00,45.00,SummerDesignDay
9,10192647.0677428
411,0.0
2,1, 7,21, 0,23,45.00,60.00,SummerDesignDay
9,10219079.8887415
411,0.0
2,1, 7,21, 0,24, 0.00,15.00,SummerDesignDay
9,10139675.3006698
411,0.0
2,1, 7,21, 0,24,15.00,30.00,SummerDesignDay
9,10139675.3006698
411,0.0
2,1, 7,21, 0,24,30.00,45.00,SummerDesignDay
9,10139675.3006698
411,0.0
2,1, 7,21, 0,24,45.00,60.00,SummerDesignDay
9,10139675.3006698
411,0.0
1,CHICAGO OHARE INTL AP ANN CLG .4% CONDNS ENTH=>MDB,  41.98, -87.92,  -6.00, 201.00
2,1, 7,21, 0, 1, 0.00,15.00,SummerDesignDay
9,10139675.3006698
411,0.0
2,1, 7,21, 0, 1,15.00,30.00,SummerDesignDay
9,10139675.3006698
411,0.0
2,1, 7,21, 0, 1,30.00,45.00,SummerDesignDay
9,10139675.3006698
411,0.0
2,1, 7,21, 0, 1,45.00,60.00,SummerDesignDay
9,10139675.3006698
411,0.0
2,1, 7,21, 0, 2, 0.00,15.00,SummerDesignDay
9,10139675.3006698
411,0.0
2,1, 7,21, 0, 2,15.00,30.00,SummerDesignDay
9,10139675.3006698
411,0.0
2,1, 7,21, 0, 2,30.00,45.00,SummerDesignDay
9,10139675.3006698
411,0.0
2,1, 7,21, 0, 2,45.00,60.00,SummerDesignDay
9,10139675.3006698
411,0.0
2,1, 7,21, 0, 3, 0.00,15.00,SummerDesignDay
9,10139675.3006698
411,0.0
2,1, 7,21, 0, 3,15.00,30.00,SummerDesignDay
9,10139675.3006698
411,0.0
2,1, 7,21, 0, 3,30.00,45.00,SummerDesignDay
9,10139675.3006698
411,0.0
2,1, 7,21, 0, 3,45.00,60.00,SummerDesignDay
9,10139675.3006698
411,0.0
2,1, 7,21, 0, 4, 0.00,15.00,SummerDesignDay
9,10139675.3006698
411,0.0
2,1, 7,21, 0, 4,15.00,30.00,SummerDesignDay
9,10139675.3006698
411,0.0
2,1, 7,21, 0, 4,30.00,45.00,SummerDesignDay
9,10139675.3006698
411,0.0
2,1, 7,21, 0, 4,45.00,60.00,SummerDesignDay
9,10139675.3006698
411,0.0
2,1, 7,21, 0, 5, 0.00,15.00,SummerDesignDay
9,10139675.3006698
411,0.0
2,1, 7,21, 0, 5,15.00,30.00,SummerDesignDay
9,10139675.3006698
411,0.0
2,1, 7,21, 0, 5,30.00,45.00,SummerDesignDay
9,10139675.3006698
411,0.0
2,1, 7,21, 0, 5,45.00,60.00,SummerDesignDay
9,10139675.3006698
411,0.0
2,1, 7,21, 0, 6, 0.00,15.00,SummerDesignDay
9,10139675.3006698
411,0.0
2,1, 7,21, 0, 6,15.00,30.00,SummerDesignDay
9,10139675.3006698
411,0.0
2,1, 7,21, 0, 6,30.00,45.00,SummerDesignDay
9,10139675.3006698
411,0.0
2,1, 7,21, 0, 6,45.00,60.00,SummerDesignDay
9,10139675.3006698
411,0.0
2,1, 7,21, 0, 7, 0.00,15.00,SummerDesignDay
9,18641444.6430721
411,95326.8635799098
2,1, 7,21, 0, 7,15.00,30.00,SummerDesignDay
9,15799332.6613321
411,0.0
2,1, 7,21, 0, 7,30.00,45.00,SummerDesignDay
9,16603475.1357084
411,0.0
2,1, 7,21, 0, 7,45.00,60.00,SummerDesignDay
9,16283798.1234355
411,0.0
2,1, 7,21, 0, 8, 0.00,15.00,SummerDesignDay
9,16047327.4269483
411,0.0
2,1, 7,21, 0, 8,15.00,30.00,SummerDesignDay
9,16024823.5184094
411,0.0
2,1, 7,21, 0, 8,30.00,45.00,SummerDesignDay
9,16064917.8303342
411,0.0
2,1, 7,21, 0, 8,45.00,60.00,SummerDesignDay
9,16155573.9646342
411,0.0
2,1, 7,21, 0, 9, 0.00,15.00,SummerDesignDay
9,16305250.2861761
411,0.0
2,1, 7,21, 0, 9,15.00,30.00,SummerDesignDay
9,16484644.8318214
411,0.0
2,1, 7,21, 0, 9,30.00,45.00,SummerDesignDay
9,16689002.3961135
411,0.0
2,1, 7,21, 0, 9,45.00,60.00,SummerDesignDay
9,16916848.3063832
411,0.0
2,1, 7,21, 0,10, 0.00,15.00,SummerDesignDay
9,17139622.6288126
411,0.0
2,1, 7,21, 0,10,15.00,30.00,SummerDesignDay
9,17369466.3450163
411,0.0
2,1, 7,21, 0,10,30.00,45.00,SummerDesignDay
9,17600496.8261181
411,0.0
2,1, 7,21, 0,10,45.00,60.00,SummerDesignDay
9,17836001.6193785
411,0.0
2,1, 7,21, 0,11, 0.00,15.00,SummerDesignDay
9,18056209.5822767
411,0.0
2,1, 7,21, 0,11,15.00,30.00,SummerDesignDay
9,18275858.9838506
411,0.0
2,1, 7,21, 0,11,30.00,45.00,SummerDesignDay
9,18493021.7155251
411,0.0
2,1, 7,21, 0,11,45.00,60.00,SummerDesignDay
9,18709581.1379325
411,0.0
2,1, 7,21, 0,12, 0.00,15.00,SummerDesignDay
9,18863642.6747487
411,0.0
2,1, 7,21, 0,12,15.00,30.00,SummerDesignDay
9,19015849.3812641
411,0.0
2,1, 7,21, 0,12,30.00,45.00,SummerDesignDay
9,19171271.0643837
411,0.0
2,1, 7,21, 0,12,45.00,60.00,SummerDesignDay
9,19339160.3147532
411,0.0
2,1, 7,21, 0,13, 0.00,15.00,SummerDesignDay
9,19507234.1626622
411,0.0
2,1, 7,21, 0,13,15.00,30.00,SummerDesignDay
9,19692787.7425009
411,0.0
2,1, 7,21, 0,13,30.00,45.00,SummerDesignDay
9,19889628.4085103
411,0.0
2,1, 7,21, 0,13,45.00,60.00,SummerDesignDay
9,20090147.5218003
411,0.0
2,1, 7,21, 0,14, 0.00,15.00,SummerDesignDay
9,20245813.914369
411,0.0
2,1, 7,21, 0,14,15.00,30.00,SummerDesignDay
9,20394157.4779702
411,0.0
2,1, 7,21, 0,14,30.00,45.00,SummerDesignDay
9,20532517.9921853
411,0.0
2,1, 7,21, 0,14,45.00,60.00,SummerDesignDay
9,20660070.2456085
411,0.0
2,1, 7,21, 0,15, 0.00,15.00,SummerDesignDay
9,20701309.8212681
411,0.0
2,1, 7,21, 0,15,15.00,30.00,SummerDesignDay
9,20727255.1376947
411,0.0
2,1, 7,21, 0,15,30.00,45.00,SummerDesignDay
9,20738759.5289759
411,0.0
2,1, 7,21, 0,15,45.00,60.00,SummerDesignDay
9,20740652.6703668
411,0.0
2,1, 7,21, 0,16, 0.00,15.00,SummerDesignDay
9,20645334.2536179
411,0.0
2,1, 7,21, 0,16,15.00,30.00,SummerDesignDay
9,20540005.2992248
411,0.0
2,1, 7,21, 0,16,30.00,45.00,SummerDesignDay
9,20425229.2803284
411,0.0
2,1, 7,21, 0,16,45.00,60.00,SummerDesignDay
9,20303663.021283
411,0.0
2,1, 7,21, 0,17, 0.00,15.00,SummerDesignDay
9,20150977.2372947
411,0.0
2,1, 7,21, 0,17,15.00,30.00,SummerDesignDay
9,20002598.5321983
411,0.0
2,1, 7,21, 0,17,30.00,45.00,SummerDesignDay
9,19859384.7002853
411,0.0
2,1, 7,21, 0,17,45.00,60.00,SummerDesignDay
9,19714594.0768976
411,0.0
2,1, 7,21, 0,18, 0.00,15.00,SummerDesignDay
9,19537888.8605363
411,0.0
2,1, 7,21, 0,18,15.00,30.00,SummerDesignDay
9,19350941.8778849
411,0.0
2,1, 7,21, 0,18,30.00,45.00,SummerDesignDay
9,19140068.863848
411,0.0
2,1, 7,21, 0,18,45.00,60.00,SummerDesignDay
9,18930596.586173
411,0.0
2,1, 7,21, 0,19, 0.00,15.00,SummerDesignDay
9,18631621.5920151
411,0.0
2,1, 7,21, 0,19,15.00,30.00,SummerDesignDay
9,18307841.9093815
411,0.0
2,1, 7,21, 0,19,30.00,45.00,SummerDesignDay
9,17939430.7042783
411,0.0
2,1, 7,21, 0,19,45.00,60.00,SummerDesignDay
9,17543436.5971474
411,0.0
2,1, 7,21, 0,20, 0.00,15.00,SummerDesignDay
9,17197500.3303837
411,0.0
2,1, 7,21, 0,20,15.00,30.00,SummerDesignDay
9,16927013.0828326
411,0.0
2,1, 7,21, 0,20,30.00,45.00,SummerDesignDay
9,16707971.1430803
411,0.0
2,1, 7,21, 0,20,45.00,60.00,SummerDesignDay
9,16514526.5207018
411,0.0
2,1, 7,21, 0,21, 0.00,15.00,SummerDesignDay
9,16350264.4917298
411,0.0
2,1, 7,21, 0,21,15.00,30.00,SummerDesignDay
9,16195433.6470158
411,0.0
2,1, 7,21, 0,21,30.00,45.00,SummerDesignDay
9,16044516.1680366
411,0.0
2,1, 7,21, 0,21,45.00,60.00,SummerDesignDay
9,15899379.8616106
411,0.0
2,1, 7,21, 0,22, 0.00,15.00,SummerDesignDay
9,15759396.1957332
411,0.0
2,1, 7,21, 0,22,15.00,30.00,SummerDesignDay
9,15623957.8053244
411,0.0
2,1, 7,21, 0,22,30.00,45.00,SummerDesignDay
9,15481709.8667558
411,0.0
2,1, 7,21, 0,22,45.00,60.00,SummerDesignDay
9,15342881.7920688
411,0.0
2,1, 7,21, 0,23, 0.00,15.00,SummerDesignDay
9,10447019.6846666
411,0.0
2,1, 7,21, 0,23,15.00,30.00,SummerDesignDay
9,10443777.2710074
411,318815.367014309
2,1, 7,21, 0,23,30.00,45.00,SummerDesignDay
9,10139675.3006698
411,0.0
2,1, 7,21, 0,23,45.00,60.00,SummerDesignDay
9,10399461.8887537
411,0.0
2,1, 7,21, 0,24, 0.00,15.00,SummerDesignDay
9,10139675.3006698
411,0.0
2,1, 7,21, 0,24,15.00,30.00,SummerDesignDay
9,10332022.8809485
411,0.0
2,1, 7,21, 0,24,30.00,45.00,SummerDesignDay
9,10139675.3006698
411,0.0
2,1, 7,21, 0,24,45.00,60.00,SummerDesignDay
9,10139675.3006698
411,0.0
1,CHICAGO OHARE INTL AP ANN CLG .4% CONDNS WB=>MDB,  41.98, -87.92,  -6.00, 201.00
2,1, 7,21, 0, 1, 0.00,15.00,SummerDesignDay
9,10139675.3006698
411,0.0
2,1, 7,21, 0, 1,15.00,30.00,SummerDesignDay
9,10139675.3006698
411,0.0
2,1, 7,21, 0, 1,30.00,45.00,SummerDesignDay
9,10139675.3006698
411,0.0
2,1, 7,21, 0, 1,45.00,60.00,SummerDesignDay
9,10139675.3006698
411,0.0
2,1, 7,21, 0, 2, 0.00,15.00,SummerDesignDay
9,10139675.3006698
411,0.0
2,1, 7,21, 0, 2,15.00,30.00,SummerDesignDay
9,10139675.3006698
411,0.0
2,1, 7,21, 0, 2,30.00,45.00,SummerDesignDay
9,10139675.3006698
411,0.0
2,1, 7,21, 0, 2,45.00,60.00,SummerDesignDay
9,10139675.3006698
411,0.0
2,1, 7,21, 0, 3, 0.00,15.00,SummerDesignDay
9,10139675.3006698
411,0.0
2,1, 7,21, 0, 3,15.00,30.00,SummerDesignDay
9,10139675.3006698
411,0.0
2,1, 7,21, 0, 3,30.00,45.00,SummerDesignDay
9,10139675.3006698
411,0.0
2,1, 7,21, 0, 3,45.00,60.00,SummerDesignDay
9,10139675.3006698
411,0.0
2,1, 7,21, 0, 4, 0.00,15.00,SummerDesignDay
9,10139675.3006698
411,0.0
2,1, 7,21, 0, 4,15.00,30.00,SummerDesignDay
9,10139675.3006698
411,0.0
2,1, 7,21, 0, 4,30.00,45.00,SummerDesignDay
9,10139675.3006698
411,0.0
2,1, 7,21, 0, 4,45.00,60.00,SummerDesignDay
9,10139675.3006698
411,0.0
2,1, 7,21, 0, 5, 0.00,15.00,SummerDesignDay
9,10139675.3006698
411,0.0
2,1, 7,21, 0, 5,15.00,30.00,SummerDesignDay
9,10139675.3006698
411,0.0
2,1, 7,21, 0, 5,30.00,45.00,SummerDesignDay
9,10139675.3006698
411,0.0
2,1, 7,21, 0, 5,45.00,60.00,SummerDesignDay
9,10139675.3006698
411,0.0
2,1, 7,21, 0, 6, 0.00,15.00,SummerDesignDay
9,10139675.3006698
411,0.0
2,1, 7,21, 0, 6,15.00,30.00,SummerDesignDay
9,10139675.3006698
411,0.0
2,1, 7,21, 0, 6,30.00,45.00,SummerDesignDay
9,10139675.3006698
411,0.0
2,1, 7,21, 0, 6,45.00,60.00,SummerDesignDay
9,10139675.3006698
411,0.0
2,1, 7,21, 0, 7, 0.00,15.00,SummerDesignDay
9,18331161.5457026
411,0.0
2,1, 7,21, 0, 7,15.00,30.00,SummerDesignDay
9,15512697.1182315
411,0.0
2,1, 7,21, 0, 7,30.00,45.00,SummerDesignDay
9,16110676.7464833
411,0.0
2,1, 7,21, 0, 7,45.00,60.00,SummerDesignDay
9,16201772.3427619
411,0.0
2,1, 7,21, 0, 8, 0.00,15.00,SummerDesignDay
9,16037683.3859499
411,0.0
2,1, 7,21, 0, 8,15.00,30.00,SummerDesignDay
9,15997759.9821764
411,0.0
2,1, 7,21, 0, 8,30.00,45.00,SummerDesignDay
9,16021884.7492297
411,0.0
2,1, 7,21, 0, 8,45.00,60.00,SummerDesignDay
9,16096885.7882737
411,0.0
2,1, 7,21, 0, 9, 0.00,15.00,SummerDesignDay
9,16203628.0523278
411,0.0
2,1, 7,21, 0, 9,15.00,30.00,SummerDesignDay
9,16326491.7670402
411,0.0
2,1, 7,21, 0, 9,30.00,45.00,SummerDesignDay
9,16462503.5081666
411,0.0
2,1, 7,21, 0, 9,45.00,60.00,SummerDesignDay
9,16607439.5676332
411,0.0
2,1, 7,21, 0,10, 0.00,15.00,SummerDesignDay
9,16740611.5655614
411,0.0
2,1, 7,21, 0,10,15.00,30.00,SummerDesignDay
9,16873013.9792931
411,0.0
2,1, 7,21, 0,10,30.00,45.00,SummerDesignDay
9,17001537.7112804
411,0.0
2,1, 7,21, 0,10,45.00,60.00,SummerDesignDay
9,17120898.1551292
411,0.0
2,1, 7,21, 0,11, 0.00,15.00,SummerDesignDay
9,17228035.731608
411,0.0
2,1, 7,21, 0,11,15.00,30.00,SummerDesignDay
9,17331477.8690765
411,0.0
2,1, 7,21, 0,11,30.00,45.00,SummerDesignDay
9,17429930.9548805
411,0.0
2,1, 7,21, 0,11,45.00,60.00,SummerDesignDay
9,17523728.8562043
411,0.0
2,1, 7,21, 0,12, 0.00,15.00,SummerDesignDay
9,17576762.6599377
411,0.0
2,1, 7,21, 0,12,15.00,30.00,SummerDesignDay
9,17629204.0175274
411,0.0
2,1, 7,21, 0,12,30.00,45.00,SummerDesignDay
9,17686330.6611508
411,0.0
2,1, 7,21, 0,12,45.00,60.00,SummerDesignDay
9,17755355.9388037
411,0.0
2,1, 7,21, 0,13, 0.00,15.00,SummerDesignDay
9,17832070.3094257
411,0.0
2,1, 7,21, 0,13,15.00,30.00,SummerDesignDay
9,17925868.6917258
411,0.0
2,1, 7,21, 0,13,30.00,45.00,SummerDesignDay
9,18030444.8440571
411,0.0
2,1, 7,21, 0,13,45.00,60.00,SummerDesignDay
9,18140456.326843
411,0.0
2,1, 7,21, 0,14, 0.00,15.00,SummerDesignDay
9,18226578.5580593
411,0.0
2,1, 7,21, 0,14,15.00,30.00,SummerDesignDay
9,18309918.5948642
411,0.0
2,1, 7,21, 0,14,30.00,45.00,SummerDesignDay
9,18388222.6901266
411,0.0
2,1, 7,21, 0,14,45.00,60.00,SummerDesignDay
9,18459848.9158965
411,0.0
2,1, 7,21, 0,15, 0.00,15.00,SummerDesignDay
9,18482080.8106495
411,0.0
2,1, 7,21, 0,15,15.00,30.00,SummerDesignDay
9,18494957.8729994
411,0.0
2,1, 7,21, 0,15,30.00,45.00,SummerDesignDay
9,18499400.485859
411,0.0
2,1, 7,21, 0,15,45.00,60.00,SummerDesignDay
9,18495100.5544798
411,0.0
2,1, 7,21, 0,16, 0.00,15.00,SummerDesignDay
9,18439553.2825743
411,0.0
2,1, 7,21, 0,16,15.00,30.00,SummerDesignDay
9,18377521.6611787
411,0.0
2,1, 7,21, 0,16,30.00,45.00,SummerDesignDay
9,18310705.5355963
411,0.0
2,1, 7,21, 0,16,45.00,60.00,SummerDesignDay
9,18240154.8082899
411,0.0
2,1, 7,21, 0,17, 0.00,15.00,SummerDesignDay
9,18152019.5545184
411,0.0
2,1, 7,21, 0,17,15.00,30.00,SummerDesignDay
9,18068014.1957859
411,0.0
2,1, 7,21, 0,17,30.00,45.00,SummerDesignDay
9,17988812.0374751
411,0.0
2,1, 7,21, 0,17,45.00,60.00,SummerDesignDay
9,17909005.9655283
411,0.0
2,1, 7,21, 0,18, 0.00,15.00,SummerDesignDay
9,17809297.7555156
411,0.0
2,1, 7,21, 0,18,15.00,30.00,SummerDesignDay
9,17700977.2770242
411,0.0
2,1, 7,21, 0,18,30.00,45.00,SummerDesignDay
9,17574056.2367737
411,0.0
2,1, 7,21, 0,18,45.00,60.00,SummerDesignDay
9,17442626.6414959
411,0.0
2,1, 7,21, 0,19, 0.00,15.00,SummerDesignDay
9,17249876.3652237
411,0.0
2,1, 7,21, 0,19,15.00,30.00,SummerDesignDay
9,17033624.1512305
411,0.0
2,1, 7,21, 0,19,30.00,45.00,SummerDesignDay
9,16776882.72702
411,0.0
2,1, 7,21, 0,19,45.00,60.00,SummerDesignDay
9,16493200.3158463
411,0.0
2,1, 7,21, 0,20, 0.00,15.00,SummerDesignDay
9,16242406.47411
411,0.0
2,1, 7,21, 0,20,15.00,30.00,SummerDesignDay
9,16048686.5937171
411,0.0
2,1, 7,21, 0,20,30.00,45.00,SummerDesignDay
9,15893801.0377462
411,0.0
2,1, 7,21, 0,20,45.00,60.00,SummerDesignDay
9,15762777.3342483
411,0.0
2,1, 7,21, 0,21, 0.00,15.00,SummerDesignDay
9,15651910.9370956
411,0.0
2,1, 7,21, 0,21,15.00,30.00,SummerDesignDay
9,15551870.3682056
411,0.0
2,1, 7,21, 0,21,30.00,45.00,SummerDesignDay
9,15453234.5513447
411,0.0
2,1, 7,21, 0,21,45.00,60.00,SummerDesignDay
9,15360418.8982507
411,0.0
2,1, 7,21, 0,22, 0.00,15.00,SummerDesignDay
9,15269741.8042588
411,0.0
2,1, 7,21, 0,22,15.00,30.00,SummerDesignDay
9,15177592.9826589
411,0.0
2,1, 7,21, 0,22,30.00,45.00,SummerDesignDay
9,15082632.4060818
411,0.0
2,1, 7,21, 0,22,45.00,60.00,SummerDesignDay
9,14990047.9521027
411,0.0
2,1, 7,21, 0,23, 0.00,15.00,SummerDesignDay
9,10424204.7924008
411,0.0
2,1, 7,21, 0,23,15.00,30.00,SummerDesignDay
9,10422429.0401887
411,308146.725741865
2,1, 7,21, 0,23,30.00,45.00,SummerDesignDay
9,10139675.3006698
411,0.0
2,1, 7,21, 0,23,45.00,60.00,SummerDesignDay
9,10382562.016319
411,0.0
2,1, 7,21, 0,24, 0.00,15.00,SummerDesignDay
9,10139675.3006698
411,0.0
2,1, 7,21, 0,24,15.00,30.00,SummerDesignDay
9,10319314.2185835
411,0.0
2,1, 7,21, 0,24,30.00,45.00,SummerDesignDay
9,10139675.3006698
411,0.0
2,1, 7,21, 0,24,45.00,60.00,SummerDesignDay
9,10139675.3006698
411,0.0
1,CHICAGO OHARE INTL AP ANN HTG 99.6% CONDNS DB,  41.98, -87.92,  -6.00, 201.00
2,1, 1,21, 0, 1, 0.00,15.00,WinterDesignDay
9,1182953.43949856
411,51524381.205965
2,1, 1,21, 0, 1,15.00,30.00,WinterDesignDay
9,1182953.43949856
411,51524381.4652732
2,1, 1,21, 0, 1,30.00,45.00,WinterDesignDay
9,1182953.43949856
411,51524381.7207927
2,1, 1,21, 0, 1,45.00,60.00,WinterDesignDay
9,1182953.43949856
411,51524381.9725889
2,1, 1,21, 0, 2, 0.00,15.00,WinterDesignDay
9,1182953.43949856
411,51524382.2206952
2,1, 1,21, 0, 2,15.00,30.00,WinterDesignDay
9,1182953.43949856
411,51524382.4651923
2,1, 1,21, 0, 2,30.00,45.00,WinterDesignDay
9,1182953.43949856
411,51524382.706107
2,1, 1,21, 0, 2,45.00,60.00,WinterDesignDay
9,1182953.43949856
411,51524382.9435138
2,1, 1,21, 0, 3, 0.00,15.00,WinterDesignDay
9,1182953.43949856
411,51524383.1774483
2,1, 1,21, 0, 3,15.00,30.00,WinterDesignDay
9,1182953.43949856
411,51524383.4079686
2,1, 1,21, 0, 3,30.00,45.00,WinterDesignDay
9,1182953.43949856
411,51524383.6351201
2,1, 1,21, 0, 3,45.00,60.00,WinterDesignDay
9,1182953.43949856
411,51524383.8589571
2,1, 1,21, 0, 4, 0.00,15.00,WinterDesignDay
9,1182953.43949856
411,51524384.0795256
2,1, 1,21, 0, 4,15.00,30.00,WinterDesignDay
9,1182953.43949856
411,51524384.2968707
2,1, 1,21, 0, 4,30.00,45.00,WinterDesignDay
9,1182953.43949856
411,51524384.5110479
2,1, 1,21, 0, 4,45.00,60.00,WinterDesignDay
9,1182953.43949856
411,51524384.7220908
2,1, 1,21, 0, 5, 0.00,15.00,WinterDesignDay
9,1182953.43949856
411,51524384.9300531
2,1, 1,21, 0, 5,15.00,30.00,WinterDesignDay
9,1182953.43949856
411,51524385.1349809
2,1, 1,21, 0, 5,30.00,45.00,WinterDesignDay
9,1182953.43949856
411,51524385.3369107