Program Version,EnergyPlus, Version 8.3.0-6d97d074ea, YMD=2015.09.15 10:16
1,5,Environment Title[],Latitude[deg],Longitude[deg],Time Zone[],Elevation[m]
2,6,Day of Simulation[],Month[],Day of Month[],DST Indicator[1=yes 0=no],Hour[],StartMinute[],EndMinute[],DayType
3,3,Cumulative Day of Simulation[],Month[],Day of Month[],DST Indicator[1=yes 0=no],DayType  ! When Daily Report Variables Requested
4,2,Cumulative Days of Simulation[],Month[]  ! When Monthly Report Variables Requested
5,1,Cumulative Days of Simulation[] ! When Run Period Report Variables Requested
6,9,Environment,Site Outdoor Air Drybulb Temperature [C] !Monthly [Value,Min,Day,Hour,Minute,Max,Day,Hour,Minute]
7,1,Environment,Site Outdoor Air Drybulb Temperature [C] !TimeStep
204,1,THERMAL ZONE 1,Zone Air Temperature [C] !Hourly
205,1,THERMAL ZONE 1,Zone Air Relative Humidity [%] !Hourly
238,1,THERMAL ZONE 2,Zone Air Temperature [C] !Hourly
239,1,THERMAL ZONE 2,Zone Air Relative Humidity [%] !Hourly
9,1,Electricity:Facility [J] !TimeStep
411,1,Gas:Facility [J] !TimeStep
End of Data Dictionary
1,CHICAGO OHARE INTL AP ANN CLG .4% CONDNS DB=>MWB,  41.98, -87.92,  -6.00, 201.00
2,1, 7,21, 0, 1, 0.00,15.00,SummerDesignDay
7,24.5325
9,10408578.1559719
411,0.0
2,1, 7,21, 0, 1,15.00,30.00,SummerDesignDay
7,24.375
9,10397368.8240539
411,0.0
2,1, 7,21, 0, 1,30.00,45.00,SummerDesignDay
7,24.2175
9,10380168.6006272
411,0.0
2,1, 7,21, 0, 1,45.00,60.00,SummerDesignDay
7,24.06
9,10358482.9995049
411,0.0
2,1, 7,21, 0, 1, 0.00,60.00,SummerDesignDay
204,26.6999371178205
205,58.1584643083901
238,26.6997983986602
239,61.7899722337288
2,1, 7,21, 0, 2, 0.00,15.00,SummerDesignDay
7,23.955
9,10341858.2099038
411,0.0
2,1, 7,21, 0, 2,15.00,30.00,SummerDesignDay
7,23.85
9,10322258.6575277
411,0.0
2,1, 7,21, 0, 2,30.00,45.00,SummerDesignDay
7,23.745
9,10300363.8832445
411,0.0
2,1, 7,21, 0, 2,45.00,60.00,SummerDesignDay
7,23.64
9,10276622.0666697
411,0.0
2,1, 7,21, 0, 2, 0.00,60.00,SummerDesignDay
204,26.6999711050396
205,60.4316504670714
238,26.6999718985814
239,63.8387306213574
2,1, 7,21, 0, 3, 0.00,15.00,SummerDesignDay
7,23.56125
9,10255817.2615269
411,0.0
2,1, 7,21, 0, 3,15.00,30.00,SummerDesignDay
7,23.4825
9,10233863.5003086
411,0.0
2,1, 7,21, 0, 3,30.00,45.00,SummerDesignDay
7,23.40375
9,10210910.7535487
411,0.0
2,1, 7,21, 0, 3,45.00,60.00,SummerDesignDay
7,23.325
9,10139675.3006698
411,0.0
2,1, 7,21, 0, 3, 0.00,60.00,SummerDesignDay
204,26.7047220313433
205,62.1601441349703
238,26.6881896941672
239,64.8494706073455
2,1, 7,21, 0, 4, 0.00,15.00,SummerDesignDay
7,23.24625
9,10197318.2666084
411,0.0
2,1, 7,21, 0, 4,15.00,30.00,SummerDesignDay
7,23.1675
9,10139675.3006698
411,0.0
2,1, 7,21, 0, 4,30.00,45.00,SummerDesignDay
7,23.08875
9,10139675.3006698
411,0.0
2,1, 7,21, 0, 4,45.00,60.00,SummerDesignDay
7,23.01
9,10139675.3006698
411,0.0
2,1, 7,21, 0, 4, 0.00,60.00,SummerDesignDay
204,26.6884068726318
205,63.6699058954275
238,26.6068096654165
239,65.7191279185928
2,1, 7,21, 0, 5, 0.00,15.00,SummerDesignDay
7,22.9575
9,10139675.3006698
411,0.0
2,1, 7,21, 0, 5,15.00,30.00,SummerDesignDay
7,22.905
9,10139675.3006698
411,0.0
2,1, 7,21, 0, 5,30.00,45.00,SummerDesignDay
7,22.8525
9,10139675.3006698
411,0.0
2,1, 7,21, 0, 5,45.00,60.00,SummerDesignDay
7,22.8
9,10139675.3006698
411,0.0
2,1, 7,21, 0, 5, 0.00,60.00,SummerDesignDay
204,26.6175739302719
205,64.9677224839919
238,26.5157614058588
239,66.425878813585
2,1, 7,21, 0, 6, 0.00,15.00,SummerDesignDay
7,22.8525
9,10139675.3006698
411,0.0
2,1, 7,21, 0, 6,15.00,30.00,SummerDesignDay
7,22.905
9,10139675.3006698
411,0.0
2,1, 7,21, 0, 6,30.00,45.00,SummerDesignDay
7,22.9575
9,10277709.3448579
411,0.0
2,1, 7,21, 0, 6,45.00,60.00,SummerDesignDay
7,23.01
9,10307429.7044604
411,0.0
2,1, 7,21, 0, 6, 0.00,60.00,SummerDesignDay
204,26.6800588925315
205,65.2466316323101
238,26.674808807737
239,66.0613795450603
2,1, 7,21, 0, 7, 0.00,15.00,SummerDesignDay
7,23.19375
9,19835056.7762374
411,0.0
2,1, 7,21, 0, 7,15.00,30.00,SummerDesignDay
7,23.3775
9,17924625.8606857
411,0.0
2,1, 7,21, 0, 7,30.00,45.00,SummerDesignDay
7,23.56125
9,17179547.8536575
411,0.0
2,1, 7,21, 0, 7,45.00,60.00,SummerDesignDay
7,23.745
9,16960315.6459249
411,0.0
2,1, 7,21, 0, 7, 0.00,60.00,SummerDesignDay
204,24.1356617307422
205,65.4340854198029
238,24.1739642425696
239,67.4822871646904
2,1, 7,21, 0, 8, 0.00,15.00,SummerDesignDay
7,24.19125
9,16405255.2463901
411,0.0
2,1, 7,21, 0, 8,15.00,30.00,SummerDesignDay
7,24.6375
9,16336951.4644728
411,0.0
2,1, 7,21, 0, 8,30.00,45.00,SummerDesignDay
7,25.08375
9,16299042.622748
411,0.0
2,1, 7,21, 0, 8,45.00,60.00,SummerDesignDay
7,25.53
9,16302956.1048811
411,0.0
2,1, 7,21, 0, 8, 0.00,60.00,SummerDesignDay
204,23.9978010400166
205,58.4631949851963
238,23.997038169525
239,59.6927601142891
2,1, 7,21, 0, 9, 0.00,15.00,SummerDesignDay
7,26.02875
9,16356923.6577744
411,0.0
2,1, 7,21, 0, 9,15.00,30.00,SummerDesignDay
7,26.5275
9,16438671.7406892
411,0.0
2,1, 7,21, 0, 9,30.00,45.00,SummerDesignDay
7,27.02625
9,16539498.4483863
411,0.0
2,1, 7,21, 0, 9,45.00,60.00,SummerDesignDay
7,27.525
9,16658147.80491
411,0.0
2,1, 7,21, 0, 9, 0.00,60.00,SummerDesignDay
204,23.9982887157689
205,54.9828644301083
238,23.9974973300891
239,53.2314703806716
2,1, 7,21, 0,10, 0.00,15.00,SummerDesignDay
7,27.97125
9,16772123.2280568
411,0.0
2,1, 7,21, 0,10,15.00,30.00,SummerDesignDay
7,28.4175
9,16891632.8629098
411,0.0
2,1, 7,21, 0,10,30.00,45.00,SummerDesignDay
7,28.86375
9,17014340.4778577
411,0.0
2,1, 7,21, 0,10,45.00,60.00,SummerDesignDay
7,29.31
9,17137582.6493598
411,0.0
2,1, 7,21, 0,10, 0.00,60.00,SummerDesignDay
204,23.9983430330994
205,52.8566259820191
238,23.9979122386028
239,50.2577784450382
2,1, 7,21, 0,11, 0.00,15.00,SummerDesignDay
7,29.70375
9,17245720.9662913
411,0.0
2,1, 7,21, 0,11,15.00,30.00,SummerDesignDay
7,30.0975
9,17350769.9652442
411,0.0
2,1, 7,21, 0,11,30.00,45.00,SummerDesignDay
7,30.49125
9,17451974.4322138
411,0.0
2,1, 7,21, 0,11,45.00,60.00,SummerDesignDay
7,30.885
9,17549502.6315268
411,0.0
2,1, 7,21, 0,11, 0.00,60.00,SummerDesignDay
204,23.998319637617
205,51.3464995637162
238,23.9981667648817
239,48.9109496166633
2,1, 7,21, 0,12, 0.00,15.00,SummerDesignDay
7,31.1475
9,17606313.2270115
411,0.0
2,1, 7,21, 0,12,15.00,30.00,SummerDesignDay
7,31.41
9,17662185.0921092
411,0.0
2,1, 7,21, 0,12,30.00,45.00,SummerDesignDay
7,31.6725
9,17722013.5144356
411,0.0
2,1, 7,21, 0,12,45.00,60.00,SummerDesignDay
7,31.935
9,17792842.7023916
411,0.0
2,1, 7,21, 0,12, 0.00,60.00,SummerDesignDay
204,23.9982959009535
205,50.2748840766427
238,23.9983750217679
239,48.522098433631
2,1, 7,21, 0,13, 0.00,15.00,SummerDesignDay
7,32.145
9,17870504.8077074
411,0.0
2,1, 7,21, 0,13,15.00,30.00,SummerDesignDay
7,32.355
9,17964462.466445
411,0.0
2,1, 7,21, 0,13,30.00,45.00,SummerDesignDay
7,32.565
9,18068868.7641697
411,0.0
2,1, 7,21, 0,13,45.00,60.00,SummerDesignDay
7,32.775
9,18178784.672066
411,0.0
2,1, 7,21, 0,13, 0.00,60.00,SummerDesignDay
204,23.9982352577794
205,49.4980775034916
238,23.9984487439394
239,48.5435535656213
2,1, 7,21, 0,14, 0.00,15.00,SummerDesignDay
7,32.90625
9,18265644.3626844
411,0.0
2,1, 7,21, 0,14,15.00,30.00,SummerDesignDay
7,33.0375
9,18350031.1698249
411,0.0
2,1, 7,21, 0,14,30.00,45.00,SummerDesignDay
7,33.16875
9,18429619.8364113
411,0.0
2,1, 7,21, 0,14,45.00,60.00,SummerDesignDay
7,33.3
9,18502755.3717331
411,0.0
2,1, 7,21, 0,14, 0.00,60.00,SummerDesignDay
204,23.9980170448697
205,48.6351378603899
238,23.9984564027505
239,48.6101060455951
2,1, 7,21, 0,15, 0.00,15.00,SummerDesignDay
7,33.3
9,18527355.1773323
411,0.0
2,1, 7,21, 0,15,15.00,30.00,SummerDesignDay
7,33.3
9,18542131.211594
411,0.0
2,1, 7,21, 0,15,30.00,45.00,SummerDesignDay
7,33.3
9,18548559.2033855
411,0.0
2,1, 7,21, 0,15,45.00,60.00,SummerDesignDay
7,33.3
9,18557038.1468715
411,0.0
2,1, 7,21, 0,15, 0.00,60.00,SummerDesignDay
204,23.9978461082551
205,47.7408682958809
238,23.9985017317228
239,48.7401050150064
2,1, 7,21, 0,16, 0.00,15.00,SummerDesignDay
7,33.1425
9,18503771.6241625
411,0.0
2,1, 7,21, 0,16,15.00,30.00,SummerDesignDay
7,32.985
9,18444197.8642709
411,0.0
2,1, 7,21, 0,16,30.00,45.00,SummerDesignDay
7,32.8275
9,18378811.9979189
411,0.0
2,1, 7,21, 0,16,45.00,60.00,SummerDesignDay
7,32.67
9,18308768.3303846
411,0.0
2,1, 7,21, 0,16, 0.00,60.00,SummerDesignDay
204,23.9978743737148
205,47.013727906414
238,23.9985918564261
239,48.9965134927634
2,1, 7,21, 0,17, 0.00,15.00,SummerDesignDay
7,32.46
9,18220537.2935748
411,0.0
2,1, 7,21, 0,17,15.00,30.00,SummerDesignDay
7,32.25
9,18135509.4145169
411,0.0
2,1, 7,21, 0,17,30.00,45.00,SummerDesignDay
7,32.04
9,18054422.7749728
411,0.0
2,1, 7,21, 0,17,45.00,60.00,SummerDesignDay
7,31.83
9,17972064.4380531
411,0.0
2,1, 7,21, 0,17, 0.00,60.00,SummerDesignDay
204,23.9979442988811
205,46.5526738571148
238,23.9986719602895
239,49.3572762946097
2,1, 7,21, 0,18, 0.00,15.00,SummerDesignDay
7,31.5675
9,17869777.51243
411,0.0
2,1, 7,21, 0,18,15.00,30.00,SummerDesignDay
7,31.305
9,17757975.1458184
411,0.0
2,1, 7,21, 0,18,30.00,45.00,SummerDesignDay
7,31.0425
9,17623908.8804946
411,0.0
2,1, 7,21, 0,18,45.00,60.00,SummerDesignDay
7,30.78
9,17494653.2169891
411,0.0
2,1, 7,21, 0,18, 0.00,60.00,SummerDesignDay
204,23.9980549268109
205,46.453290251044
238,23.998696770069
239,49.6749279835254
2,1, 7,21, 0,19, 0.00,15.00,SummerDesignDay
7,30.38625
9,17302838.2885684
411,0.0
2,1, 7,21, 0,19,15.00,30.00,SummerDesignDay
7,29.9925
9,17088920.9454588
411,0.0
2,1, 7,21, 0,19,30.00,45.00,SummerDesignDay
7,29.59875
9,16835696.0387361
411,0.0
2,1, 7,21, 0,19,45.00,60.00,SummerDesignDay
7,29.205
9,16552828.9640262
411,0.0
2,1, 7,21, 0,19, 0.00,60.00,SummerDesignDay
204,23.9983556652736
205,46.9465125131296
238,23.9987659370779
239,50.032745884909
2,1, 7,21, 0,20, 0.00,15.00,SummerDesignDay
7,28.91625
9,16293775.4867786
411,0.0
2,1, 7,21, 0,20,15.00,30.00,SummerDesignDay
7,28.6275
9,16090147.9306341
411,0.0
2,1, 7,21, 0,20,30.00,45.00,SummerDesignDay
7,28.33875
9,15939268.5902277
411,0.0
2,1, 7,21, 0,20,45.00,60.00,SummerDesignDay
7,28.05
9,15810470.3383754
411,0.0
2,1, 7,21, 0,20, 0.00,60.00,SummerDesignDay
204,23.9988673723739
205,48.4565720420746
238,23.9989147896964
239,50.6981430259108
2,1, 7,21, 0,21, 0.00,15.00,SummerDesignDay
7,27.81375
9,15710230.8733996
411,0.0
2,1, 7,21, 0,21,15.00,30.00,SummerDesignDay
7,27.5775
9,15614512.7698399
411,0.0
2,1, 7,21, 0,21,30.00,45.00,SummerDesignDay
7,27.34125
9,15523282.1154072
411,0.0
2,1, 7,21, 0,21,45.00,60.00,SummerDesignDay
7,27.105
9,15432904.22383
411,0.0
2,1, 7,21, 0,21, 0.00,60.00,SummerDesignDay
204,23.9989648480184
205,50.1212695537169
238,23.99899228638
239,51.4686259159844
2,1, 7,21, 0,22, 0.00,15.00,SummerDesignDay
7,26.86875
9,15344855.2236527
411,0.0
2,1, 7,21, 0,22,15.00,30.00,SummerDesignDay
7,26.6325
9,15258078.844404
411,0.0
2,1, 7,21, 0,22,30.00,45.00,SummerDesignDay
7,26.39625
9,15172387.2896422
411,0.0
2,1, 7,21, 0,22,45.00,60.00,SummerDesignDay
7,26.16
9,15088617.1247533
411,0.0
2,1, 7,21, 0,22, 0.00,60.00,SummerDesignDay
204,23.9989871938281
205,51.3752246533359
238,23.9990956950494
239,52.2021776045299
2,1, 7,21, 0,23, 0.00,15.00,SummerDesignDay
7,25.97625
9,10437125.7808625
411,0.0
2,1, 7,21, 0,23,15.00,30.00,SummerDesignDay
7,25.7925
9,10340625.8501319
411,354073.879003742
2,1, 7,21, 0,23,30.00,45.00,SummerDesignDay
7,25.60875
9,10139675.3006698
411,161131.575393877
2,1, 7,21, 0,23,45.00,60.00,SummerDesignDay
7,25.425
9,10249824.9951995
411,0.0
2,1, 7,21, 0,23, 0.00,60.00,SummerDesignDay
204,26.1185429172984
205,50.6608432132532
238,25.8897690276922
239,51.8797051798252
2,1, 7,21, 0,24, 0.00,15.00,SummerDesignDay
7,25.24125
9,10272978.9816103
411,0.0
2,1, 7,21, 0,24,15.00,30.00,SummerDesignDay
7,25.0575
9,10456084.6715532
411,0.0
2,1, 7,21, 0,24,30.00,45.00,SummerDesignDay
7,24.87375
9,10408237.2372985
411,0.0
2,1, 7,21, 0,24,45.00,60.00,SummerDesignDay
7,24.69
9,10422860.9395892
411,0.0
2,1, 7,21, 0,24, 0.00,60.00,SummerDesignDay
204,26.6880049365704
205,54.7021277997079
238,26.6271633190077
239,57.3394020562393
4,1, 7
6,27.669375,22.8,21, 5,60,33.3,21,14,60
1,CHICAGO OHARE INTL AP ANN CLG .4% CONDNS DP=>MDB,  41.98, -87.92,  -6.00, 201.00
2,1, 7,21, 0, 1, 0.00,15.00,SummerDesignDay
7,20.1325
9,10139675.3006698
411,0.0
2,1, 7,21, 0, 1,15.00,30.00,SummerDesignDay
7,19.975
9,10139675.3006698
411,0.0
2,1, 7,21, 0, 1,30.00,45.00,SummerDesignDay
7,19.8175
9,10139675.3006698
411,0.0
2,1, 7,21, 0, 1,45.00,60.00,SummerDesignDay
7,19.66
9,10139675.3006698
411,0.0
2,1, 7,21, 0, 1, 0.00,60.00,SummerDesignDay
204,25.4633122369476
205,69.0825698530637
238,25.3287582688115
239,70.4727370546847
2,1, 7,21, 0, 2, 0.00,15.00,SummerDesignDay
7,19.555
9,10139675.3006698
411,0.0
2,1, 7,21, 0, 2,15.00,30.00,SummerDesignDay
7,19.45
9,10139675.3006698
411,0.0
2,1, 7,21, 0, 2,30.00,45.00,SummerDesignDay
7,19.345
9,10139675.3006698
411,0.0
2,1, 7,21, 0, 2,45.00,60.00,SummerDesignDay
7,19.24
9,10139675.3006698
411,0.0
2,1, 7,21, 0, 2, 0.00,60.00,SummerDesignDay
204,25.306904640721
205,70.0698229296223
238,25.1910835744454
239,71.0753115333624
2,1, 7,21, 0, 3, 0.00,15.00,SummerDesignDay
7,19.16125
9,10139675.3006698
411,0.0
2,1, 7,21, 0, 3,15.00,30.00,SummerDesignDay
7,19.0825
9,10139675.3006698
411,0.0
2,1, 7,21, 0, 3,30.00,45.00,SummerDesignDay
7,19.00375
9,10139675.3006698
411,0.0
2,1, 7,21, 0, 3,45.00,60.00,SummerDesignDay
7,18.925
9,10139675.3006698
411,0.0
2,1, 7,21, 0, 3, 0.00,60.00,SummerDesignDay
204,25.1348700316224
205,70.3198098155229
238,25.0341735438392
239,71.09273629279
2,1, 7,21, 0, 4, 0.00,15.00,SummerDesignDay
7,18.84625
9,10139675.3006698
411,0.0
2,1, 7,21, 0, 4,15.00,30.00,SummerDesignDay
7,18.7675
9,10139675.3006698
411,0.0
2,1, 7,21, 0, 4,30.00,45.00,SummerDesignDay
7,18.68875
9,10139675.3006698
411,0.0
2,1, 7,21, 0, 4,45.00,60.00,SummerDesignDay
7,18.61
9,10139675.3006698
411,0.0
2,1, 7,21, 0, 4, 0.00,60.00,SummerDesignDay
204,24.9552200818809
205,70.2444898845417
238,24.8679560272041
239,70.8650179637021
2,1, 7,21, 0, 5, 0.00,15.00,SummerDesignDay
7,18.5575
9,10139675.3006698
411,0.0
2,1, 7,21, 0, 5,15.00,30.00,SummerDesignDay
7,18.505
9,10139675.3006698
411,0.0
2,1, 7,21, 0, 5,30.00,45.00,SummerDesignDay
7,18.4525
9,10139675.3006698
411,0.0
2,1, 7,21, 0, 5,45.00,60.00,SummerDesignDay
7,18.4
9,10139675.3006698
411,0.0
2,1, 7,21, 0, 5, 0.00,60.00,SummerDesignDay
204,24.7873160906784
205,69.9615329705643
238,24.7231446004712
239,70.4282579697756
2,1, 7,21, 0, 6, 0.00,15.00,SummerDesignDay
7,18.4525
9,10139675.3006698
411,0.0
2,1, 7,21, 0, 6,15.00,30.00,SummerDesignDay
7,18.505
9,10139675.3006698
411,0.0
2,1, 7,21, 0, 6,30.00,45.00,SummerDesignDay
7,18.5575
9,10139675.3006698
411,0.0
2,1, 7,21, 0, 6,45.00,60.00,SummerDesignDay
7,18.61
9,10139675.3006698
411,0.0
2,1, 7,21, 0, 6, 0.00,60.00,SummerDesignDay
204,24.8358000786367
205,68.9937326281038
238,25.0120211740143
239,68.4155824895416
2,1, 7,21, 0, 7, 0.00,15.00,SummerDesignDay
7,18.79375
9,13921132.476529
411,192456.791996897
2,1, 7,21, 0, 7,15.00,30.00,SummerDesignDay
7,18.9775
9,10945167.6942216
411,0.0
2,1, 7,21, 0, 7,30.00,45.00,SummerDesignDay
7,19.16125
9,12427617.4930024
411,0.0
2,1, 7,21, 0, 7,45.00,60.00,SummerDesignDay
7,19.345
9,12077100.1131198
411,0.0
2,1, 7,21, 0, 7, 0.00,60.00,SummerDesignDay
204,23.9989089963582
205,66.4602048517201
238,24.0186140116503
239,70.3350055858421
2,1, 7,21, 0, 8, 0.00,15.00,SummerDesignDay
7,19.79125
9,12659223.7735664
411,0.0
2,1, 7,21, 0, 8,15.00,30.00,SummerDesignDay
7,20.2375
9,13293542.8686545
411,0.0
2,1, 7,21, 0, 8,30.00,45.00,SummerDesignDay
7,20.68375
9,13933338.8101826
411,0.0
2,1, 7,21, 0, 8,45.00,60.00,SummerDesignDay
7,21.13
9,14573324.766967
411,0.0
2,1, 7,21, 0, 8, 0.00,60.00,SummerDesignDay
204,23.9990506149189
205,62.5763312048254
238,23.9997146199921
239,74.1702524231774
2,1, 7,21, 0, 9, 0.00,15.00,SummerDesignDay
7,21.62875
9,15579569.1414117
411,0.0
2,1, 7,21, 0, 9,15.00,30.00,SummerDesignDay
7,22.1275
9,15708885.2427667
411,0.0
2,1, 7,21, 0, 9,30.00,45.00,SummerDesignDay
7,22.62625
9,15791487.577723
411,0.0
2,1, 7,21, 0, 9,45.00,60.00,SummerDesignDay
7,23.125
9,15916717.3434803
411,0.0
2,1, 7,21, 0, 9, 0.00,60.00,SummerDesignDay
204,23.9990329956763
205,61.4299581993482
238,23.9972564668522
239,67.2069033022634
2,1, 7,21, 0,10, 0.00,15.00,SummerDesignDay
7,23.57125
9,16049141.5296377
411,0.0
2,1, 7,21, 0,10,15.00,30.00,SummerDesignDay
7,24.0175
9,16189165.0071622
411,0.0
2,1, 7,21, 0,10,30.00,45.00,SummerDesignDay
7,24.46375
9,16320098.3999674
411,0.0
2,1, 7,21, 0,10,45.00,60.00,SummerDesignDay
7,24.91
9,16447173.910168
411,0.0
2,1, 7,21, 0,10, 0.00,60.00,SummerDesignDay
204,23.9988082381782
205,61.1406857771413
238,23.9974907989682
239,60.4060469705777
2,1, 7,21, 0,11, 0.00,15.00,SummerDesignDay
7,25.30375
9,16553496.1751286
411,0.0
2,1, 7,21, 0,11,15.00,30.00,SummerDesignDay
7,25.6975
9,16651411.4065733
411,0.0
2,1, 7,21, 0,11,30.00,45.00,SummerDesignDay
7,26.09125
9,16740399.6215527
411,0.0
2,1, 7,21, 0,11,45.00,60.00,SummerDesignDay
7,26.485
9,16819140.1098297
411,0.0
2,1, 7,21, 0,11, 0.00,60.00,SummerDesignDay
204,23.9983982120668
205,60.0579459948446
238,23.9979204255972
239,57.623534195709
2,1, 7,21, 0,12, 0.00,15.00,SummerDesignDay
7,26.7475
9,16858956.2609418
411,0.0
2,1, 7,21, 0,12,15.00,30.00,SummerDesignDay
7,27.01
9,16902618.63304
411,0.0
2,1, 7,21, 0,12,30.00,45.00,SummerDesignDay
7,27.2725
9,16952040.5978855
411,0.0
2,1, 7,21, 0,12,45.00,60.00,SummerDesignDay
7,27.535
9,17013312.4601714
411,0.0
2,1, 7,21, 0,12, 0.00,60.00,SummerDesignDay
204,23.998192750115
205,58.6524197629762
238,23.9982098565534
239,56.4272635489806
2,1, 7,21, 0,13, 0.00,15.00,SummerDesignDay
7,27.745
9,17083333.5903038
411,0.0
2,1, 7,21, 0,13,15.00,30.00,SummerDesignDay
7,27.955
9,17170317.7356793
411,0.0
2,1, 7,21, 0,13,30.00,45.00,SummerDesignDay
7,28.165
9,17268330.5794932
411,0.0
2,1, 7,21, 0,13,45.00,60.00,SummerDesignDay
7,28.375
9,17372197.790374
411,0.0
2,1, 7,21, 0,13, 0.00,60.00,SummerDesignDay
204,23.9981210857176
205,57.3744697006347
238,23.998320694302
239,56.0029912122925
2,1, 7,21, 0,14, 0.00,15.00,SummerDesignDay
7,28.50625
9,17453836.1897607
411,0.0
2,1, 7,21, 0,14,15.00,30.00,SummerDesignDay
7,28.6375
9,17533221.1251958
411,0.0
2,1, 7,21, 0,14,30.00,45.00,SummerDesignDay
7,28.76875
9,17608095.2365354
411,0.0
2,1, 7,21, 0,14,45.00,60.00,SummerDesignDay
7,28.9
9,17676745.3173042
411,0.0
2,1, 7,21, 0,14, 0.00,60.00,SummerDesignDay
204,23.9978549940076
205,55.8155181291186
238,23.9983460335291
239,55.7651585582312
2,1, 7,21, 0,15, 0.00,15.00,SummerDesignDay
7,28.9
9,17698463.122779
411,0.0
2,1, 7,21, 0,15,15.00,30.00,SummerDesignDay
7,28.9
9,17711520.9902942
411,0.0
2,1, 7,21, 0,15,30.00,45.00,SummerDesignDay
7,28.9
9,17717007.7090602
411,0.0
2,1, 7,21, 0,15,45.00,60.00,SummerDesignDay
7,28.9
9,17715043.6324734
411,0.0
2,1, 7,21, 0,15, 0.00,60.00,SummerDesignDay
204,23.9976424778455
205,54.1949601696661
238,23.9984201100546
239,55.7531679205379
2,1, 7,21, 0,16, 0.00,15.00,SummerDesignDay
7,28.7425
9,17654583.6241396
411,0.0
2,1, 7,21, 0,16,15.00,30.00,SummerDesignDay
7,28.585
9,17592875.8926614
411,0.0
2,1, 7,21, 0,16,30.00,45.00,SummerDesignDay
7,28.4275
9,17530252.6587046
411,0.0
2,1, 7,21, 0,16,45.00,60.00,SummerDesignDay
7,28.27
9,17464831.264845
411,0.0
2,1, 7,21, 0,16, 0.00,60.00,SummerDesignDay
204,23.9976460996012
205,53.0135789844095
238,23.9985470244403
239,56.0897114298793
2,1, 7,21, 0,17, 0.00,15.00,SummerDesignDay
7,28.06
9,17383566.0754213
411,0.0
2,1, 7,21, 0,17,15.00,30.00,SummerDesignDay
7,27.85
9,17306965.2321168
411,0.0
2,1, 7,21, 0,17,30.00,45.00,SummerDesignDay
7,27.64
9,17233936.336906
411,0.0
2,1, 7,21, 0,17,45.00,60.00,SummerDesignDay
7,27.43
9,17160689.826272
411,0.0
2,1, 7,21, 0,17, 0.00,60.00,SummerDesignDay
204,23.9977981194894
205,52.4237448670785
238,23.9986480929726
239,56.7231021051083
2,1, 7,21, 0,18, 0.00,15.00,SummerDesignDay
7,27.1675
9,17069124.5169529
411,0.0
2,1, 7,21, 0,18,15.00,30.00,SummerDesignDay
7,26.905
9,16973201.160966
411,0.0
2,1, 7,21, 0,18,30.00,45.00,SummerDesignDay
7,26.6425
9,16855899.8851362
411,0.0
2,1, 7,21, 0,18,45.00,60.00,SummerDesignDay
7,26.38
9,16725184.6579111
411,0.0
2,1, 7,21, 0,18, 0.00,60.00,SummerDesignDay
204,23.9979439567725
205,52.4493029776789
238,23.9986847552375
239,57.3768949217244
2,1, 7,21, 0,19, 0.00,15.00,SummerDesignDay
7,25.98625
9,16544481.6441278
411,0.0
2,1, 7,21, 0,19,15.00,30.00,SummerDesignDay
7,25.5925
9,16340671.6432085
411,0.0
2,1, 7,21, 0,19,30.00,45.00,SummerDesignDay
7,25.19875
9,16099157.8225416
411,0.0
2,1, 7,21, 0,19,45.00,60.00,SummerDesignDay
7,24.805
9,15819527.3475965
411,0.0
2,1, 7,21, 0,19, 0.00,60.00,SummerDesignDay
204,23.9983969491567
205,53.4943023930963
238,23.9987780624569
239,58.156436575547
2,1, 7,21, 0,20, 0.00,15.00,SummerDesignDay
7,24.51625
9,15557048.3263766
411,0.0
2,1, 7,21, 0,20,15.00,30.00,SummerDesignDay
7,24.2275
9,15345093.6940297
411,0.0
2,1, 7,21, 0,20,30.00,45.00,SummerDesignDay
7,23.93875
9,15188309.5789311
411,0.0
2,1, 7,21, 0,20,45.00,60.00,SummerDesignDay
7,23.65
9,15043200.7220193
411,0.0
2,1, 7,21, 0,20, 0.00,60.00,SummerDesignDay
204,23.9989841731625
205,56.1545369289672
238,23.9990913172888
239,59.5577022093502
2,1, 7,21, 0,21, 0.00,15.00,SummerDesignDay
7,23.41375
9,14916437.2136842
411,0.0
2,1, 7,21, 0,21,15.00,30.00,SummerDesignDay
7,23.1775
9,14795828.4003967
411,0.0
2,1, 7,21, 0,21,30.00,45.00,SummerDesignDay
7,22.94125
9,14663926.0772135
411,0.0
2,1, 7,21, 0,21,45.00,60.00,SummerDesignDay
7,22.705
9,14536327.5067786
411,0.0
2,1, 7,21, 0,21, 0.00,60.00,SummerDesignDay
204,23.9990824786188
205,58.5766721321965
238,23.9992265138552
239,60.9512496377904
2,1, 7,21, 0,22, 0.00,15.00,SummerDesignDay
7,22.46875
9,14408914.4695916
411,0.0
2,1, 7,21, 0,22,15.00,30.00,SummerDesignDay
7,22.2325
9,14284486.5599487
411,0.0
2,1, 7,21, 0,22,30.00,45.00,SummerDesignDay
7,21.99625
9,14160716.0188538
411,0.0
2,1, 7,21, 0,22,45.00,60.00,SummerDesignDay
7,21.76
9,14039953.3939018
411,0.0
2,1, 7,21, 0,22, 0.00,60.00,SummerDesignDay
204,23.9991704554313
205,59.7820909953371
238,23.999274561577
239,61.5235165796511
2,1, 7,21, 0,23, 0.00,15.00,SummerDesignDay
7,21.57625
9,10220200.2545577
411,0.0
2,1, 7,21, 0,23,15.00,30.00,SummerDesignDay
7,21.3925
9,10252637.8012356
411,217924.894165841
2,1, 7,21, 0,23,30.00,45.00,SummerDesignDay
7,21.20875
9,10192647.0677428
411,0.0
2,1, 7,21, 0,23,45.00,60.00,SummerDesignDay
7,21.025
9,10219079.8887415
411,0.0
2,1, 7,21, 0,23, 0.00,60.00,SummerDesignDay
204,25.1927876082306
205,61.6706315608826
238,25.0537415693118
239,63.958596830329
2,1, 7,21, 0,24, 0.00,15.00,SummerDesignDay
7,20.84125
9,10139675.3006698
411,0.0
2,1, 7,21, 0,24,15.00,30.00,SummerDesignDay
7,20.6575
9,10139675.3006698
411,0.0
2,1, 7,21, 0,24,30.00,45.00,SummerDesignDay
7,20.47375
9,10139675.3006698
411,0.0
2,1, 7,21, 0,24,45.00,60.00,SummerDesignDay
7,20.29
9,10139675.3006698
411,0.0
2,1, 7,21, 0,24, 0.00,60.00,SummerDesignDay
204,25.5329083995856
205,66.5755869654246
238,25.3765903557181
239,68.6380035207743
4,1, 7
6,23.269375,18.4,21, 5,60,28.9,21,14,60
1,CHICAGO OHARE INTL AP ANN CLG .4% CONDNS ENTH=>MDB,  41.98, -87.92,  -6.00, 201.00
2,1, 7,21, 0, 1, 0.00,15.00,SummerDesignDay
7,22.6325
9,10139675.3006698
411,0.0
2,1, 7,21, 0, 1,15.00,30.00,SummerDesignDay
7,22.475
9,10139675.3006698
411,0.0
2,1, 7,21, 0, 1,30.00,45.00,SummerDesignDay
7,22.3175
9,10139675.3006698
411,0.0
2,1, 7,21, 0, 1,45.00,60.00,SummerDesignDay
7,22.16
9,10139675.3006698
411,0.0
2,1, 7,21, 0, 1, 0.00,60.00,SummerDesignDay
204,26.3699568979738
205,73.3206691182543
238,26.1993389595643
239,73.9326471775358
2,1, 7,21, 0, 2, 0.00,15.00,SummerDesignDay
7,22.055
9,10139675.3006698
411,0.0
2,1, 7,21, 0, 2,15.00,30.00,SummerDesignDay
7,21.95
9,10139675.3006698
411,0.0
2,1, 7,21, 0, 2,30.00,45.00,SummerDesignDay
7,21.845
9,10139675.3006698
411,0.0
2,1, 7,21, 0, 2,45.00,60.00,SummerDesignDay
7,21.74
9,10139675.3006698
411,0.0
2,1, 7,21, 0, 2, 0.00,60.00,SummerDesignDay
204,26.2929320654267
205,75.2075490531567
238,26.1367423330023
239,75.7708407235386
2,1, 7,21, 0, 3, 0.00,15.00,SummerDesignDay
7,21.66125
9,10139675.3006698
411,0.0
2,1, 7,21, 0, 3,15.00,30.00,SummerDesignDay
7,21.5825
9,10139675.3006698
411,0.0
2,1, 7,21, 0, 3,30.00,45.00,SummerDesignDay
7,21.50375
9,10139675.3006698
411,0.0
2,1, 7,21, 0, 3,45.00,60.00,SummerDesignDay
7,21.425
9,10139675.3006698
411,0.0
2,1, 7,21, 0, 3, 0.00,60.00,SummerDesignDay
204,26.1734111410096
205,75.966724966366
238,26.0298006976185
239,76.5244726088828
2,1, 7,21, 0, 4, 0.00,15.00,SummerDesignDay
7,21.34625
9,10139675.3006698
411,0.0
2,1, 7,21, 0, 4,15.00,30.00,SummerDesignDay
7,21.2675
9,10139675.3006698
411,0.0
2,1, 7,21, 0, 4,30.00,45.00,SummerDesignDay
7,21.18875
9,10139675.3006698
411,0.0
2,1, 7,21, 0, 4,45.00,60.00,SummerDesignDay
7,21.11
9,10139675.3006698
411,0.0
2,1, 7,21, 0, 4, 0.00,60.00,SummerDesignDay
204,26.0299306147005
205,76.1752067465398
238,25.8978581104194
239,76.7340322100543
2,1, 7,21, 0, 5, 0.00,15.00,SummerDesignDay
7,21.0575
9,10139675.3006698
411,0.0
2,1, 7,21, 0, 5,15.00,30.00,SummerDesignDay
7,21.005
9,10139675.3006698
411,0.0
2,1, 7,21, 0, 5,30.00,45.00,SummerDesignDay
7,20.9525
9,10139675.3006698
411,0.0
2,1, 7,21, 0, 5,45.00,60.00,SummerDesignDay
7,20.9
9,10139675.3006698
411,0.0
2,1, 7,21, 0, 5, 0.00,60.00,SummerDesignDay
204,25.8872547474292
205,76.0414511086823
238,25.7770485724072
239,76.5446964588503
2,1, 7,21, 0, 6, 0.00,15.00,SummerDesignDay
7,20.9525
9,10139675.3006698
411,0.0
2,1, 7,21, 0, 6,15.00,30.00,SummerDesignDay
7,21.005
9,10139675.3006698
411,0.0
2,1, 7,21, 0, 6,30.00,45.00,SummerDesignDay
7,21.0575
9,10139675.3006698
411,0.0
2,1, 7,21, 0, 6,45.00,60.00,SummerDesignDay
7,21.11
9,10139675.3006698
411,0.0
2,1, 7,21, 0, 6, 0.00,60.00,SummerDesignDay
204,25.9543143095836
205,75.0927698730591
238,26.0843651890745
239,74.5374402498263
2,1, 7,21, 0, 7, 0.00,15.00,SummerDesignDay
7,21.29375
9,18641444.6430721
411,95326.8635799098
2,1, 7,21, 0, 7,15.00,30.00,SummerDesignDay
7,21.4775
9,15799332.6613321
411,0.0
2,1, 7,21, 0, 7,30.00,45.00,SummerDesignDay
7,21.66125
9,16603475.1357084
411,0.0
2,1, 7,21, 0, 7,45.00,60.00,SummerDesignDay
7,21.845
9,16283798.1234355
411,0.0
2,1, 7,21, 0, 7, 0.00,60.00,SummerDesignDay
204,24.0892155404071
205,72.5912188715748
238,24.1221026998467
239,72.8551349820402
2,1, 7,21, 0, 8, 0.00,15.00,SummerDesignDay
7,22.29125
9,16047327.4269483
411,0.0
2,1, 7,21, 0, 8,15.00,30.00,SummerDesignDay
7,22.7375
9,16024823.5184094
411,0.0
2,1, 7,21, 0, 8,30.00,45.00,SummerDesignDay
7,23.18375
9,16064917.8303342
411,0.0
2,1, 7,21, 0, 8,45.00,60.00,SummerDesignDay
7,23.63
9,16155573.9646342
411,0.0
2,1, 7,21, 0, 8, 0.00,60.00,SummerDesignDay
204,23.9981916087682
205,65.310908968317
238,23.9969656766975
239,62.9793063520808
2,1, 7,21, 0, 9, 0.00,15.00,SummerDesignDay
7,24.12875
9,16305250.2861761
411,0.0
2,1, 7,21, 0, 9,15.00,30.00,SummerDesignDay
7,24.6275
9,16484644.8318214
411,0.0
2,1, 7,21, 0, 9,30.00,45.00,SummerDesignDay
7,25.12625
9,16689002.3961135
411,0.0
2,1, 7,21, 0, 9,45.00,60.00,SummerDesignDay
7,25.625
9,16916848.3063832
411,0.0
2,1, 7,21, 0, 9, 0.00,60.00,SummerDesignDay
204,23.9985373775188
205,63.1666134733398
238,23.9977792564248
239,59.106370951123
2,1, 7,21, 0,10, 0.00,15.00,SummerDesignDay
7,26.07125
9,17139622.6288126
411,0.0
2,1, 7,21, 0,10,15.00,30.00,SummerDesignDay
7,26.5175
9,17369466.3450163
411,0.0
2,1, 7,21, 0,10,30.00,45.00,SummerDesignDay
7,26.96375
9,17600496.8261181
411,0.0
2,1, 7,21, 0,10,45.00,60.00,SummerDesignDay
7,27.41
9,17836001.6193785
411,0.0
2,1, 7,21, 0,10, 0.00,60.00,SummerDesignDay
204,23.9984084902622
205,63.1149913927343
238,23.9980275055802
239,58.613660326187
2,1, 7,21, 0,11, 0.00,15.00,SummerDesignDay
7,27.80375
9,18056209.5822767
411,0.0
2,1, 7,21, 0,11,15.00,30.00,SummerDesignDay
7,28.1975
9,18275858.9838506
411,0.0
2,1, 7,21, 0,11,30.00,45.00,SummerDesignDay
7,28.59125
9,18493021.7155251
411,0.0
2,1, 7,21, 0,11,45.00,60.00,SummerDesignDay
7,28.985
9,18709581.1379325
411,0.0
2,1, 7,21, 0,11, 0.00,60.00,SummerDesignDay
204,23.9981807576087
205,63.72677974688
238,23.99806863272
239,59.6116456302052
2,1, 7,21, 0,12, 0.00,15.00,SummerDesignDay
7,29.2475
9,18863642.6747487
411,0.0
2,1, 7,21, 0,12,15.00,30.00,SummerDesignDay
7,29.51
9,19015849.3812641
411,0.0
2,1, 7,21, 0,12,30.00,45.00,SummerDesignDay
7,29.7725
9,19171271.0643837
411,0.0
2,1, 7,21, 0,12,45.00,60.00,SummerDesignDay
7,30.035
9,19339160.3147532
411,0.0
2,1, 7,21, 0,12, 0.00,60.00,SummerDesignDay
204,23.9979220050925
205,64.3274265561568
238,23.9980782560158
239,61.3481115625553
2,1, 7,21, 0,13, 0.00,15.00,SummerDesignDay
7,30.245
9,19507234.1626622
411,0.0
2,1, 7,21, 0,13,15.00,30.00,SummerDesignDay
7,30.455
9,19692787.7425009
411,0.0
2,1, 7,21, 0,13,30.00,45.00,SummerDesignDay
7,30.665
9,19889628.4085103
411,0.0
2,1, 7,21, 0,13,45.00,60.00,SummerDesignDay
7,30.875
9,20090147.5218003
411,0.0
2,1, 7,21, 0,13, 0.00,60.00,SummerDesignDay
204,23.9975879086042
205,64.520361822309
238,23.9979332683753
239,62.9992026109676
2,1, 7,21, 0,14, 0.00,15.00,SummerDesignDay
7,31.00625
9,20245813.914369
411,0.0
2,1, 7,21, 0,14,15.00,30.00,SummerDesignDay
7,31.1375
9,20394157.4779702
411,0.0
2,1, 7,21, 0,14,30.00,45.00,SummerDesignDay
7,31.26875
9,20532517.9921853
411,0.0
2,1, 7,21, 0,14,45.00,60.00,SummerDesignDay
7,31.4
9,20660070.2456085
411,0.0
2,1, 7,21, 0,14, 0.00,60.00,SummerDesignDay
204,23.9969961693413
205,63.7331901180104
238,23.9977469053224
239,64.1363300888466
2,1, 7,21, 0,15, 0.00,15.00,SummerDesignDay
7,31.4
9,20701309.8212681
411,0.0
2,1, 7,21, 0,15,15.00,30.00,SummerDesignDay
7,31.4
9,20727255.1376947
411,0.0
2,1, 7,21, 0,15,30.00,45.00,SummerDesignDay
7,31.4
9,20738759.5289759
411,0.0
2,1, 7,21, 0,15,45.00,60.00,SummerDesignDay
7,31.4
9,20740652.6703668
411,0.0
2,1, 7,21, 0,15, 0.00,60.00,SummerDesignDay
204,23.9965395778729
205,62.3335002437936
238,23.9976944806443
239,64.9536868681706
2,1, 7,21, 0,16, 0.00,15.00,SummerDesignDay
7,31.2425
9,20645334.2536179
411,0.0
2,1, 7,21, 0,16,15.00,30.00,SummerDesignDay
7,31.085
9,20540005.2992248
411,0.0
2,1, 7,21, 0,16,30.00,45.00,SummerDesignDay